 Entering Gaussian System, Link 0=g16
 Input=JSL-82148-1-energy-conf-1.com
 Output=JSL-82148-1-energy-conf-1.log
 Initial command:
 /home/admin/g16/l1.exe "/home/admin/tmp/Gau-211672.inp" -scrdir="/home/admin/tmp/"
 Entering Link 1 = /home/admin/g16/l1.exe PID=    211681.
  
 Copyright (c) 1988,1990,1992,1993,1995,1998,2003,2009,2016,
            Gaussian, Inc.  All Rights Reserved.
  
 This is part of the Gaussian(R) 16 program.  It is based on
 the Gaussian(R) 09 system (copyright 2009, Gaussian, Inc.),
 the Gaussian(R) 03 system (copyright 2003, Gaussian, Inc.),
 the Gaussian(R) 98 system (copyright 1998, Gaussian, Inc.),
 the Gaussian(R) 94 system (copyright 1995, Gaussian, Inc.),
 the Gaussian 92(TM) system (copyright 1992, Gaussian, Inc.),
 the Gaussian 90(TM) system (copyright 1990, Gaussian, Inc.),
 the Gaussian 88(TM) system (copyright 1988, Gaussian, Inc.),
 the Gaussian 86(TM) system (copyright 1986, Carnegie Mellon
 University), and the Gaussian 82(TM) system (copyright 1983,
 Carnegie Mellon University). Gaussian is a federally registered
 trademark of Gaussian, Inc.
  
 This software contains proprietary and confidential information,
 including trade secrets, belonging to Gaussian, Inc.
  
 This software is provided under written license and may be
 used, copied, transmitted, or stored only in accord with that
 written license.
  
 The following legend is applicable only to US Government
 contracts under FAR:
  
                    RESTRICTED RIGHTS LEGEND
  
 Use, reproduction and disclosure by the US Government is
 subject to restrictions as set forth in subparagraphs (a)
 and (c) of the Commercial Computer Software - Restricted
 Rights clause in FAR 52.227-19.
  
 Gaussian, Inc.
 340 Quinnipiac St., Bldg. 40, Wallingford CT 06492
  
  
 ---------------------------------------------------------------
 Warning -- This program may not be used in any manner that
 competes with the business of Gaussian, Inc. or will provide
 assistance to any competitor of Gaussian, Inc.  The licensee
 of this program is prohibited from giving any competitor of
 Gaussian, Inc. access to this program.  By using this program,
 the user acknowledges that Gaussian, Inc. is engaged in the
 business of creating and licensing software in the field of
 computational chemistry and represents and warrants to the
 licensee that it is not a competitor of Gaussian, Inc. and that
 it will not use this program in any manner prohibited above.
 ---------------------------------------------------------------
  

 Cite this work as:
 Gaussian 16, Revision A.03,
 M. J. Frisch, G. W. Trucks, H. B. Schlegel, G. E. Scuseria, 
 M. A. Robb, J. R. Cheeseman, G. Scalmani, V. Barone, 
 G. A. Petersson, H. Nakatsuji, X. Li, M. Caricato, A. V. Marenich, 
 J. Bloino, B. G. Janesko, R. Gomperts, B. Mennucci, H. P. Hratchian, 
 J. V. Ortiz, A. F. Izmaylov, J. L. Sonnenberg, D. Williams-Young, 
 F. Ding, F. Lipparini, F. Egidi, J. Goings, B. Peng, A. Petrone, 
 T. Henderson, D. Ranasinghe, V. G. Zakrzewski, J. Gao, N. Rega, 
 G. Zheng, W. Liang, M. Hada, M. Ehara, K. Toyota, R. Fukuda, 
 J. Hasegawa, M. Ishida, T. Nakajima, Y. Honda, O. Kitao, H. Nakai, 
 T. Vreven, K. Throssell, J. A. Montgomery, Jr., J. E. Peralta, 
 F. Ogliaro, M. J. Bearpark, J. J. Heyd, E. N. Brothers, K. N. Kudin, 
 V. N. Staroverov, T. A. Keith, R. Kobayashi, J. Normand, 
 K. Raghavachari, A. P. Rendell, J. C. Burant, S. S. Iyengar, 
 J. Tomasi, M. Cossi, J. M. Millam, M. Klene, C. Adamo, R. Cammi, 
 J. W. Ochterski, R. L. Martin, K. Morokuma, O. Farkas, 
 J. B. Foresman, and D. J. Fox, Gaussian, Inc., Wallingford CT, 2016.
 
 ******************************************
 Gaussian 16:  ES64L-G16RevA.03 25-Dec-2016
                 5-Jan-2021 
 ******************************************
 %mem=16gb
 %nproc=8
 Will use up to    8 processors via shared memory.
 %chk=JSL-82148-1-conf-1.chk
 ----------------------------------------------------------------------
 # td=(nstates=30,root=1) wb97xd/6-311g(d,p) guess=read geom=check inte
 gral(ultrafinegrid) scrf=(iefpcm,read,solvent=methanol)
 ----------------------------------------------------------------------
 1/29=2,38=1,40=2,172=1/1;
 2/12=2,40=1/2;
 3/5=4,6=6,7=101,11=9,14=-4,25=1,30=1,70=2203,72=3,74=-58,75=-5,116=-2/1,2,3,8;
 4/5=1/1;
 5/5=2,38=6,53=3/2;
 8/6=1,10=2,107=1,108=30/1;
 9/8=1,41=30,42=1,70=2/14;
 6/7=2,8=2,9=2,10=2/1;
 99/5=1,9=1/99;
 ----------------------------------------------------------------------
 Candidate Structure: JSL-82148-1, Conformer: 1, energy calculation wit
 h methanol solvation
 ----------------------------------------------------------------------
 Structure from the checkpoint file:  "JSL-82148-1-conf-1.chk"
 Charge =  0 Multiplicity = 1
 Redundant internal coordinates found in file.  (old form).
 C,0,0.3829060142,-1.3392402636,-4.2665257386
 C,0,0.6391574865,0.0293631805,-4.233062505
 C,0,1.5935714681,0.5551990391,-3.3560762101
 C,0,2.3092114273,-0.3248406514,-2.5308240884
 C,0,2.0522808782,-1.7044525471,-2.5423816331
 C,0,1.0865989045,-2.199036524,-3.4162891675
 C,0,1.8940747751,2.0404874513,-3.3228561208
 C,0,2.7347885978,2.4079179724,-2.0701483912
 C,0,3.8776465127,1.3920319624,-1.9423990819
 O,0,3.2884792608,0.1013140211,-1.6601951705
 C,0,1.8718622032,2.4269631742,-0.796770576
 C,0,2.6781013573,2.4811989678,0.4778035378
 C,0,3.9707895345,2.1402348265,0.4887971591
 C,0,4.7577070308,1.7001894215,-0.7132639681
 C,0,2.7803741635,-2.6176227641,-1.5767364736
 C,0,2.2186197424,-2.46186854,-0.1834100295
 C,0,1.5191661747,-3.3542648916,0.5306898932
 C,0,0.9465855714,-2.9636126339,1.8752393909
 C,0,-0.5750202649,-2.6513718209,1.819121922
 C,0,1.1997700054,-4.7575987755,0.0815702493
 C,0,-0.8676400841,-1.4092648337,1.0262184839
 C,0,-1.3319192969,-1.3164193335,-0.2282202192
 C,0,-1.4815003847,0.0220929927,-0.9055476352
 C,0,-1.7235586703,-2.4924634746,-1.0840269857
 O,0,-0.571952465,-1.7868966447,-5.1422030143
 C,0,0.6527630802,2.9208605276,-3.3564717738
 O,0,-0.4852546495,2.5945441029,-3.0920407723
 C,0,4.7602660682,1.2832754312,-3.1873767459
 H,0,3.1687051668,3.402494842,-2.2207639485
 O,0,5.5965983837,0.5859378579,-0.4028688594
 C,0,1.9767525843,2.9286410102,1.7463170199
 C,0,1.5899754678,4.4176857502,1.6894721292
 C,0,0.7493974185,2.0570184212,2.0566403132
 O,0,1.0031272975,4.183967007,-3.6798613458
 C,0,-0.0629934253,5.1500821757,-3.6573920619
 H,0,0.0693380423,0.6867826689,-4.8809695839
 H,0,0.8809973412,-3.2679939485,-3.4371104496
 H,0,2.4795582399,2.3158224098,-4.2090165916
 H,0,1.222154805,1.542858308,-0.7793654779
 H,0,1.192397916,3.2860379833,-0.8420673341
 H,0,4.539255589,2.1779437869,1.4174994229
 H,0,5.4555931187,2.4969075524,-1.00416454
 H,0,2.7026616458,-3.649278869,-1.9285218929
 H,0,3.8455083859,-2.3526488591,-1.5702792843
 H,0,2.3695528785,-1.4723849418,0.2466382331
 H,0,1.1084033205,-3.7725335763,2.6020732091
 H,0,1.4685060832,-2.0782943639,2.2589478229
 H,0,-1.1100470786,-3.519333214,1.4202603938
 H,0,-0.9290984934,-2.5188531104,2.8507486673
 H,0,1.5816729852,-4.9890631408,-0.9150214906
 H,0,1.618591232,-5.4923259354,0.7829467314
 H,0,0.1157856605,-4.9280453286,0.0661118042
 H,0,-0.6067568641,-0.4792145445,1.5317481825
 H,0,-1.2205148722,0.8491945639,-0.238221268
 H,0,-0.8414164981,0.0930835061,-1.7929337281
 H,0,-2.5122907082,0.1798490044,-1.2538762811
 H,0,-1.6602337,-3.4486220181,-0.5604652795
 H,0,-2.7510500448,-2.3747877434,-1.4555248772
 H,0,-1.0737046197,-2.5466107954,-1.9654988094
 H,0,-0.6531715355,-2.7571465318,-5.0575621514
 H,0,5.6262943818,0.6594030548,-2.9531275339
 H,0,4.225322658,0.8322797644,-4.0264654013
 H,0,5.1118102904,2.2748097715,-3.4927470492
 H,0,4.9920599208,-0.1631181204,-0.2389128744
 H,0,2.6928439891,2.8049061761,2.5694810534
 H,0,1.1531035659,4.7350642782,2.6432164376
 H,0,2.4659102909,5.0437016783,1.4881424988
 H,0,0.8472871561,4.6117272945,0.906905696
 H,0,0.3097026407,2.3386961318,3.0200873439
 H,0,1.0222200219,0.9972394463,2.0998367858
 H,0,-0.0266229399,2.1737316862,1.2916349764
 H,0,0.3966631944,6.0985125221,-3.934283916
 H,0,-0.8413273311,4.8754694444,-4.3735546624
 H,0,-0.4993730031,5.2116075726,-2.6570633642
 Recover connectivity data from disk.
                           ----------------------------
                           !    Current Parameters    !
                           ! (Angstroms and Degrees)  !
 --------------------------                            --------------------------
 ! Name  Definition              Value                                          !
 --------------------------------------------------------------------------------
 ! R1    R(1,2)                  1.3928                                         !
 ! R2    R(1,6)                  1.399                                          !
 ! R3    R(1,25)                 1.3708                                         !
 ! R4    R(2,3)                  1.3988                                         !
 ! R5    R(2,36)                 1.0847                                         !
 ! R6    R(3,4)                  1.4027                                         !
 ! R7    R(3,7)                  1.5157                                         !
 ! R8    R(4,5)                  1.4034                                         !
 ! R9    R(4,10)                 1.3779                                         !
 ! R10   R(5,6)                  1.3932                                         !
 ! R11   R(5,15)                 1.5154                                         !
 ! R12   R(6,37)                 1.0887                                         !
 ! R13   R(7,8)                  1.5528                                         !
 ! R14   R(7,26)                 1.5222                                         !
 ! R15   R(7,38)                 1.0972                                         !
 ! R16   R(8,9)                  1.5344                                         !
 ! R17   R(8,11)                 1.5383                                         !
 ! R18   R(8,29)                 1.0955                                         !
 ! R19   R(9,10)                 1.4466                                         !
 ! R20   R(9,14)                 1.5428                                         !
 ! R21   R(9,28)                 1.53                                           !
 ! R22   R(11,12)                1.5091                                         !
 ! R23   R(11,39)                1.0973                                         !
 ! R24   R(11,40)                1.0962                                         !
 ! R25   R(12,13)                1.3369                                         !
 ! R26   R(12,31)                1.517                                          !
 ! R27   R(13,14)                1.5026                                         !
 ! R28   R(13,41)                1.0895                                         !
 ! R29   R(14,30)                1.4289                                         !
 ! R30   R(14,42)                1.0984                                         !
 ! R31   R(15,16)                1.5104                                         !
 ! R32   R(15,43)                1.0928                                         !
 ! R33   R(15,44)                1.0976                                         !
 ! R34   R(16,17)                1.34                                           !
 ! R35   R(16,45)                1.0894                                         !
 ! R36   R(17,18)                1.5127                                         !
 ! R37   R(17,20)                1.5077                                         !
 ! R38   R(18,19)                1.5543                                         !
 ! R39   R(18,46)                1.0995                                         !
 ! R40   R(18,47)                1.097                                          !
 ! R41   R(19,21)                1.5024                                         !
 ! R42   R(19,48)                1.0949                                         !
 ! R43   R(19,49)                1.0987                                         !
 ! R44   R(20,50)                1.0921                                         !
 ! R45   R(20,51)                1.0987                                         !
 ! R46   R(20,52)                1.0974                                         !
 ! R47   R(21,22)                1.3408                                         !
 ! R48   R(21,53)                1.0902                                         !
 ! R49   R(22,23)                1.5076                                         !
 ! R50   R(22,24)                1.5063                                         !
 ! R51   R(23,54)                1.0943                                         !
 ! R52   R(23,55)                1.0964                                         !
 ! R53   R(23,56)                1.0994                                         !
 ! R54   R(24,57)                1.092                                          !
 ! R55   R(24,58)                1.0989                                         !
 ! R56   R(24,59)                1.0965                                         !
 ! R57   R(25,60)                0.9773                                         !
 ! R58   R(26,27)                1.2131                                         !
 ! R59   R(26,34)                1.3501                                         !
 ! R60   R(28,61)                1.0927                                         !
 ! R61   R(28,62)                1.0925                                         !
 ! R62   R(28,63)                1.0954                                         !
 ! R63   R(30,64)                0.9764                                         !
 ! R64   R(31,32)                1.5395                                         !
 ! R65   R(31,33)                1.537                                          !
 ! R66   R(31,65)                1.098                                          !
 ! R67   R(32,66)                1.096                                          !
 ! R68   R(32,67)                1.0953                                         !
 ! R69   R(32,68)                1.0962                                         !
 ! R70   R(33,69)                1.0959                                         !
 ! R71   R(33,70)                1.0952                                         !
 ! R72   R(33,71)                1.0959                                         !
 ! R73   R(34,35)                1.4389                                         !
 ! R74   R(35,72)                1.0897                                         !
 ! R75   R(35,73)                1.0928                                         !
 ! R76   R(35,74)                1.0931                                         !
 ! A1    A(2,1,6)              119.7849                                         !
 ! A2    A(2,1,25)             117.6725                                         !
 ! A3    A(6,1,25)             122.5411                                         !
 ! A4    A(1,2,3)              120.6642                                         !
 ! A5    A(1,2,36)             118.9821                                         !
 ! A6    A(3,2,36)             120.3366                                         !
 ! A7    A(2,3,4)              118.7586                                         !
 ! A8    A(2,3,7)              121.1576                                         !
 ! A9    A(4,3,7)              120.0484                                         !
 ! A10   A(3,4,5)              121.2319                                         !
 ! A11   A(3,4,10)             122.7029                                         !
 ! A12   A(5,4,10)             116.0632                                         !
 ! A13   A(4,5,6)              118.7552                                         !
 ! A14   A(4,5,15)             119.9453                                         !
 ! A15   A(6,5,15)             121.2538                                         !
 ! A16   A(1,6,5)              120.7766                                         !
 ! A17   A(1,6,37)             119.7872                                         !
 ! A18   A(5,6,37)             119.4361                                         !
 ! A19   A(3,7,8)              110.9098                                         !
 ! A20   A(3,7,26)             113.865                                          !
 ! A21   A(3,7,38)             109.5109                                         !
 ! A22   A(8,7,26)             108.8132                                         !
 ! A23   A(8,7,38)             107.6549                                         !
 ! A24   A(26,7,38)            105.7939                                         !
 ! A25   A(7,8,9)              108.2863                                         !
 ! A26   A(7,8,11)             111.5319                                         !
 ! A27   A(7,8,29)             108.564                                          !
 ! A28   A(9,8,11)             110.9209                                         !
 ! A29   A(9,8,29)             108.5118                                         !
 ! A30   A(11,8,29)            108.9502                                         !
 ! A31   A(8,9,10)             107.6747                                         !
 ! A32   A(8,9,14)             111.0358                                         !
 ! A33   A(8,9,28)             114.1411                                         !
 ! A34   A(10,9,14)            104.7805                                         !
 ! A35   A(10,9,28)            109.2849                                         !
 ! A36   A(14,9,28)            109.476                                          !
 ! A37   A(4,10,9)             116.2404                                         !
 ! A38   A(8,11,12)            113.5699                                         !
 ! A39   A(8,11,39)            109.5901                                         !
 ! A40   A(8,11,40)            108.8555                                         !
 ! A41   A(12,11,39)           109.3829                                         !
 ! A42   A(12,11,40)           109.7468                                         !
 ! A43   A(39,11,40)           105.3709                                         !
 ! A44   A(11,12,13)           120.9528                                         !
 ! A45   A(11,12,31)           118.0241                                         !
 ! A46   A(13,12,31)           121.0226                                         !
 ! A47   A(12,13,14)           125.0628                                         !
 ! A48   A(12,13,41)           120.1766                                         !
 ! A49   A(14,13,41)           114.7583                                         !
 ! A50   A(9,14,13)            113.3969                                         !
 ! A51   A(9,14,30)            110.6225                                         !
 ! A52   A(9,14,42)            107.2368                                         !
 ! A53   A(13,14,30)           111.2267                                         !
 ! A54   A(13,14,42)           109.4022                                         !
 ! A55   A(30,14,42)           104.4863                                         !
 ! A56   A(5,15,16)            110.3039                                         !
 ! A57   A(5,15,43)            109.2441                                         !
 ! A58   A(5,15,44)            108.9364                                         !
 ! A59   A(16,15,43)           111.5855                                         !
 ! A60   A(16,15,44)           109.3055                                         !
 ! A61   A(43,15,44)           107.3865                                         !
 ! A62   A(15,16,17)           128.104                                          !
 ! A63   A(15,16,45)           113.9728                                         !
 ! A64   A(17,16,45)           117.8295                                         !
 ! A65   A(16,17,18)           119.9518                                         !
 ! A66   A(16,17,20)           124.8703                                         !
 ! A67   A(18,17,20)           115.1484                                         !
 ! A68   A(17,18,19)           112.9753                                         !
 ! A69   A(17,18,46)           109.9915                                         !
 ! A70   A(17,18,47)           109.8297                                         !
 ! A71   A(19,18,46)           108.4059                                         !
 ! A72   A(19,18,47)           108.4369                                         !
 ! A73   A(46,18,47)           107.0084                                         !
 ! A74   A(18,19,21)           112.0743                                         !
 ! A75   A(18,19,48)           109.4076                                         !
 ! A76   A(18,19,49)           107.8069                                         !
 ! A77   A(21,19,48)           111.591                                          !
 ! A78   A(21,19,49)           109.4541                                         !
 ! A79   A(48,19,49)           106.2718                                         !
 ! A80   A(17,20,50)           113.2687                                         !
 ! A81   A(17,20,51)           110.5805                                         !
 ! A82   A(17,20,52)           110.9786                                         !
 ! A83   A(50,20,51)           107.9093                                         !
 ! A84   A(50,20,52)           107.4367                                         !
 ! A85   A(51,20,52)           106.3592                                         !
 ! A86   A(19,21,22)           128.2035                                         !
 ! A87   A(19,21,53)           114.4538                                         !
 ! A88   A(22,21,53)           117.2326                                         !
 ! A89   A(21,22,23)           121.0762                                         !
 ! A90   A(21,22,24)           124.5778                                         !
 ! A91   A(23,22,24)           114.3397                                         !
 ! A92   A(22,23,54)           111.9265                                         !
 ! A93   A(22,23,55)           111.2957                                         !
 ! A94   A(22,23,56)           111.2703                                         !
 ! A95   A(54,23,55)           107.7806                                         !
 ! A96   A(54,23,56)           107.9601                                         !
 ! A97   A(55,23,56)           106.3572                                         !
 ! A98   A(22,24,57)           113.339                                          !
 ! A99   A(22,24,58)           110.5836                                         !
 ! A100  A(22,24,59)           109.9508                                         !
 ! A101  A(57,24,58)           108.0641                                         !
 ! A102  A(57,24,59)           107.9294                                         !
 ! A103  A(58,24,59)           106.719                                          !
 ! A104  A(1,25,60)            109.0734                                         !
 ! A105  A(7,26,27)            127.2032                                         !
 ! A106  A(7,26,34)            109.5579                                         !
 ! A107  A(27,26,34)           123.185                                          !
 ! A108  A(9,28,61)            108.8652                                         !
 ! A109  A(9,28,62)            111.829                                          !
 ! A110  A(9,28,63)            110.3425                                         !
 ! A111  A(61,28,62)           108.4823                                         !
 ! A112  A(61,28,63)           108.7957                                         !
 ! A113  A(62,28,63)           108.4622                                         !
 ! A114  A(14,30,64)           105.7361                                         !
 ! A115  A(12,31,32)           111.7505                                         !
 ! A116  A(12,31,33)           111.762                                          !
 ! A117  A(12,31,65)           106.9855                                         !
 ! A118  A(32,31,33)           110.814                                          !
 ! A119  A(32,31,65)           107.4887                                         !
 ! A120  A(33,31,65)           107.7884                                         !
 ! A121  A(31,32,66)           110.3711                                         !
 ! A122  A(31,32,67)           111.0192                                         !
 ! A123  A(31,32,68)           111.5791                                         !
 ! A124  A(66,32,67)           108.2533                                         !
 ! A125  A(66,32,68)           107.4523                                         !
 ! A126  A(67,32,68)           108.0247                                         !
 ! A127  A(31,33,69)           110.6181                                         !
 ! A128  A(31,33,70)           110.9648                                         !
 ! A129  A(31,33,71)           111.3526                                         !
 ! A130  A(69,33,70)           108.3007                                         !
 ! A131  A(69,33,71)           107.5907                                         !
 ! A132  A(70,33,71)           107.8773                                         !
 ! A133  A(26,34,35)           115.6033                                         !
 ! A134  A(34,35,72)           105.5375                                         !
 ! A135  A(34,35,73)           110.412                                          !
 ! A136  A(34,35,74)           110.3567                                         !
 ! A137  A(72,35,73)           110.6489                                         !
 ! A138  A(72,35,74)           110.6058                                         !
 ! A139  A(73,35,74)           109.2415                                         !
 ! D1    D(6,1,2,3)             -0.0552                                         !
 ! D2    D(6,1,2,36)          -178.5546                                         !
 ! D3    D(25,1,2,3)           179.5175                                         !
 ! D4    D(25,1,2,36)            1.018                                          !
 ! D5    D(2,1,6,5)             -0.5999                                         !
 ! D6    D(2,1,6,37)           179.5413                                         !
 ! D7    D(25,1,6,5)           179.8491                                         !
 ! D8    D(25,1,6,37)           -0.0098                                         !
 ! D9    D(2,1,25,60)         -179.6219                                         !
 ! D10   D(6,1,25,60)           -0.0619                                         !
 ! D11   D(1,2,3,4)              1.3697                                         !
 ! D12   D(1,2,3,7)            179.2059                                         !
 ! D13   D(36,2,3,4)           179.8489                                         !
 ! D14   D(36,2,3,7)            -2.3149                                         !
 ! D15   D(2,3,4,5)             -2.0812                                         !
 ! D16   D(2,3,4,10)           178.4585                                         !
 ! D17   D(7,3,4,5)           -179.9421                                         !
 ! D18   D(7,3,4,10)             0.5976                                         !
 ! D19   D(2,3,7,8)            167.2091                                         !
 ! D20   D(2,3,7,26)            44.0804                                         !
 ! D21   D(2,3,7,38)           -74.1173                                         !
 ! D22   D(4,3,7,8)            -14.9824                                         !
 ! D23   D(4,3,7,26)          -138.111                                          !
 ! D24   D(4,3,7,38)           103.6912                                         !
 ! D25   D(3,4,5,6)              1.4469                                         !
 ! D26   D(3,4,5,15)          -176.1269                                         !
 ! D27   D(10,4,5,6)          -179.0587                                         !
 ! D28   D(10,4,5,15)            3.3675                                         !
 ! D29   D(3,4,10,9)           -20.788                                          !
 ! D30   D(5,4,10,9)           159.7257                                         !
 ! D31   D(4,5,6,1)             -0.0875                                         !
 ! D32   D(4,5,6,37)           179.7719                                         !
 ! D33   D(15,5,6,1)           177.4533                                         !
 ! D34   D(15,5,6,37)           -2.6873                                         !
 ! D35   D(4,5,15,16)           74.7252                                         !
 ! D36   D(4,5,15,43)         -162.2746                                         !
 ! D37   D(4,5,15,44)          -45.2494                                         !
 ! D38   D(6,5,15,16)         -102.7867                                         !
 ! D39   D(6,5,15,43)           20.2135                                         !
 ! D40   D(6,5,15,44)          137.2387                                         !
 ! D41   D(3,7,8,9)             46.4373                                         !
 ! D42   D(3,7,8,11)           -75.884                                          !
 ! D43   D(3,7,8,29)           164.0646                                         !
 ! D44   D(26,7,8,9)           172.4321                                         !
 ! D45   D(26,7,8,11)           50.1108                                         !
 ! D46   D(26,7,8,29)          -69.9406                                         !
 ! D47   D(38,7,8,9)           -73.3515                                         !
 ! D48   D(38,7,8,11)          164.3272                                         !
 ! D49   D(38,7,8,29)           44.2758                                         !
 ! D50   D(3,7,26,27)           18.8228                                         !
 ! D51   D(3,7,26,34)         -163.801                                          !
 ! D52   D(8,7,26,27)         -105.4416                                         !
 ! D53   D(8,7,26,34)           71.9345                                         !
 ! D54   D(38,7,26,27)         139.1329                                         !
 ! D55   D(38,7,26,34)         -43.491                                          !
 ! D56   D(7,8,9,10)           -65.8923                                         !
 ! D57   D(7,8,9,14)           179.9392                                         !
 ! D58   D(7,8,9,28)            55.6189                                         !
 ! D59   D(11,8,9,10)           56.8014                                         !
 ! D60   D(11,8,9,14)          -57.3671                                         !
 ! D61   D(11,8,9,28)          178.3126                                         !
 ! D62   D(29,8,9,10)          176.447                                          !
 ! D63   D(29,8,9,14)           62.2785                                         !
 ! D64   D(29,8,9,28)          -62.0418                                         !
 ! D65   D(7,8,11,12)          167.4887                                         !
 ! D66   D(7,8,11,39)           44.8325                                         !
 ! D67   D(7,8,11,40)          -69.9293                                         !
 ! D68   D(9,8,11,12)           46.6953                                         !
 ! D69   D(9,8,11,39)          -75.9609                                         !
 ! D70   D(9,8,11,40)          169.2774                                         !
 ! D71   D(29,8,11,12)         -72.6877                                         !
 ! D72   D(29,8,11,39)         164.6561                                         !
 ! D73   D(29,8,11,40)          49.8944                                         !
 ! D74   D(8,9,10,4)            53.2427                                         !
 ! D75   D(14,9,10,4)          171.5176                                         !
 ! D76   D(28,9,10,4)          -71.2474                                         !
 ! D77   D(8,9,14,13)           39.6156                                         !
 ! D78   D(8,9,14,30)          165.3714                                         !
 ! D79   D(8,9,14,42)          -81.2629                                         !
 ! D80   D(10,9,14,13)         -76.3539                                         !
 ! D81   D(10,9,14,30)          49.4018                                         !
 ! D82   D(10,9,14,42)         162.7676                                         !
 ! D83   D(28,9,14,13)         166.5421                                         !
 ! D84   D(28,9,14,30)         -67.7022                                         !
 ! D85   D(28,9,14,42)          45.6635                                         !
 ! D86   D(8,9,28,61)          171.4261                                         !
 ! D87   D(8,9,28,62)          -68.7223                                         !
 ! D88   D(8,9,28,63)           52.0975                                         !
 ! D89   D(10,9,28,61)         -67.956                                          !
 ! D90   D(10,9,28,62)          51.8955                                         !
 ! D91   D(10,9,28,63)         172.7153                                         !
 ! D92   D(14,9,28,61)          46.2757                                         !
 ! D93   D(14,9,28,62)         166.1272                                         !
 ! D94   D(14,9,28,63)         -73.053                                          !
 ! D95   D(8,11,12,13)         -18.7355                                         !
 ! D96   D(8,11,12,31)         161.5021                                         !
 ! D97   D(39,11,12,13)        104.0348                                         !
 ! D98   D(39,11,12,31)        -75.7276                                         !
 ! D99   D(40,11,12,13)       -140.8245                                         !
 ! D100  D(40,11,12,31)         39.4131                                         !
 ! D101  D(11,12,13,14)          0.9704                                         !
 ! D102  D(11,12,13,41)       -179.6052                                         !
 ! D103  D(31,12,13,14)       -179.2744                                         !
 ! D104  D(31,12,13,41)          0.15                                           !
 ! D105  D(11,12,31,32)        -68.18                                           !
 ! D106  D(11,12,31,33)         56.6539                                         !
 ! D107  D(11,12,31,65)        174.4215                                         !
 ! D108  D(13,12,31,32)        112.0578                                         !
 ! D109  D(13,12,31,33)       -123.1083                                         !
 ! D110  D(13,12,31,65)         -5.3407                                         !
 ! D111  D(12,13,14,9)         -11.8239                                         !
 ! D112  D(12,13,14,30)       -137.2568                                         !
 ! D113  D(12,13,14,42)        107.8259                                         !
 ! D114  D(41,13,14,9)         168.7241                                         !
 ! D115  D(41,13,14,30)         43.2911                                         !
 ! D116  D(41,13,14,42)        -71.6261                                         !
 ! D117  D(9,14,30,64)         -58.6899                                         !
 ! D118  D(13,14,30,64)         68.2756                                         !
 ! D119  D(42,14,30,64)       -173.7921                                         !
 ! D120  D(5,15,16,17)         111.9591                                         !
 ! D121  D(5,15,16,45)         -64.4064                                         !
 ! D122  D(43,15,16,17)         -9.663                                          !
 ! D123  D(43,15,16,45)        173.9715                                         !
 ! D124  D(44,15,16,17)       -128.2891                                         !
 ! D125  D(44,15,16,45)         55.3454                                         !
 ! D126  D(15,16,17,18)       -175.077                                          !
 ! D127  D(15,16,17,20)          2.8504                                         !
 ! D128  D(45,16,17,18)          1.1675                                         !
 ! D129  D(45,16,17,20)        179.0949                                         !
 ! D130  D(16,17,18,19)        101.7972                                         !
 ! D131  D(16,17,18,46)       -136.9253                                         !
 ! D132  D(16,17,18,47)        -19.4041                                         !
 ! D133  D(20,17,18,19)        -76.3243                                         !
 ! D134  D(20,17,18,46)         44.9531                                         !
 ! D135  D(20,17,18,47)        162.4743                                         !
 ! D136  D(16,17,20,50)         -1.1331                                         !
 ! D137  D(16,17,20,51)        120.1338                                         !
 ! D138  D(16,17,20,52)       -122.0787                                         !
 ! D139  D(18,17,20,50)        176.8831                                         !
 ! D140  D(18,17,20,51)        -61.8501                                         !
 ! D141  D(18,17,20,52)         55.9374                                         !
 ! D142  D(17,18,19,21)        -67.3505                                         !
 ! D143  D(17,18,19,48)         56.9741                                         !
 ! D144  D(17,18,19,49)        172.1363                                         !
 ! D145  D(46,18,19,21)        170.479                                          !
 ! D146  D(46,18,19,48)        -65.1964                                         !
 ! D147  D(46,18,19,49)         49.9658                                         !
 ! D148  D(47,18,19,21)         54.6365                                         !
 ! D149  D(47,18,19,48)        178.9611                                         !
 ! D150  D(47,18,19,49)        -65.8767                                         !
 ! D151  D(18,19,21,22)        102.2285                                         !
 ! D152  D(18,19,21,53)        -73.8109                                         !
 ! D153  D(48,19,21,22)        -20.8725                                         !
 ! D154  D(48,19,21,53)        163.0881                                         !
 ! D155  D(49,19,21,22)       -138.2189                                         !
 ! D156  D(49,19,21,53)         45.7418                                         !
 ! D157  D(19,21,22,23)       -175.827                                          !
 ! D158  D(19,21,22,24)          3.2085                                         !
 ! D159  D(53,21,22,23)          0.118                                          !
 ! D160  D(53,21,22,24)        179.1535                                         !
 ! D161  D(21,22,23,54)         -2.8875                                         !
 ! D162  D(21,22,23,55)        117.7908                                         !
 ! D163  D(21,22,23,56)       -123.778                                          !
 ! D164  D(24,22,23,54)        177.9841                                         !
 ! D165  D(24,22,23,55)        -61.3377                                         !
 ! D166  D(24,22,23,56)         57.0935                                         !
 ! D167  D(21,22,24,57)          4.0111                                         !
 ! D168  D(21,22,24,58)        125.5303                                         !
 ! D169  D(21,22,24,59)       -116.8735                                         !
 ! D170  D(23,22,24,57)       -176.8956                                         !
 ! D171  D(23,22,24,58)        -55.3763                                         !
 ! D172  D(23,22,24,59)         62.2199                                         !
 ! D173  D(7,26,34,35)        -175.8214                                         !
 ! D174  D(27,26,34,35)          1.6815                                         !
 ! D175  D(12,31,32,66)       -175.8048                                         !
 ! D176  D(12,31,32,67)        -55.7643                                         !
 ! D177  D(12,31,32,68)         64.7958                                         !
 ! D178  D(33,31,32,66)         58.8357                                         !
 ! D179  D(33,31,32,67)        178.8763                                         !
 ! D180  D(33,31,32,68)        -60.5637                                         !
 ! D181  D(65,31,32,66)        -58.7095                                         !
 ! D182  D(65,31,32,67)         61.331                                          !
 ! D183  D(65,31,32,68)       -178.1089                                         !
 ! D184  D(12,31,33,69)        174.9991                                         !
 ! D185  D(12,31,33,70)         54.7715                                         !
 ! D186  D(12,31,33,71)        -65.4116                                         !
 ! D187  D(32,31,33,69)        -59.6479                                         !
 ! D188  D(32,31,33,70)       -179.8755                                         !
 ! D189  D(32,31,33,71)         59.9415                                         !
 ! D190  D(65,31,33,69)         57.7139                                         !
 ! D191  D(65,31,33,70)        -62.5137                                         !
 ! D192  D(65,31,33,71)        177.3032                                         !
 ! D193  D(26,34,35,72)        179.7013                                         !
 ! D194  D(26,34,35,73)        -60.6947                                         !
 ! D195  D(26,34,35,74)         60.1779                                         !
 --------------------------------------------------------------------------------
 Stoichiometry    C29H40O5
 Framework group  C1[X(C29H40O5)]
 Deg. of freedom   216
 Full point group                 C1      NOp   1
 Largest Abelian subgroup         C1      NOp   1
 Largest concise Abelian subgroup C1      NOp   1
                         Standard orientation:                         
 ---------------------------------------------------------------------
 Center     Atomic      Atomic             Coordinates (Angstroms)
 Number     Number       Type             X           Y           Z
 ---------------------------------------------------------------------
      1          6           0        1.168737    3.341516    0.447151
      2          6           0       -0.175663    3.048030    0.231947
      3          6           0       -0.717605    1.831517    0.659625
      4          6           0        0.111260    0.923920    1.335570
      5          6           0        1.471119    1.198724    1.547093
      6          6           0        1.987288    2.412447    1.098412
      7          6           0       -2.183090    1.507952    0.447149
      8          6           0       -2.462208    0.003306    0.710237
      9          6           0       -1.772905   -0.391886    2.022926
     10          8           0       -0.344845   -0.282980    1.819232
     11          6           0       -1.970923   -0.874049   -0.453972
     12          6           0       -1.941945   -2.347448   -0.128766
     13          6           0       -1.951715   -2.772160    1.138887
     14          6           0       -2.011767   -1.881163    2.347336
     15          6           0        2.359568    0.160755    2.202646
     16          6           0        2.671943   -0.951488    1.229751
     17          6           0        3.851488   -1.253879    0.670485
     18          6           0        3.934929   -2.346571   -0.372268
     19          6           0        4.020418   -1.795443   -1.823088
     20          6           0        5.151046   -0.548436    0.964710
     21          6           0        2.749780   -1.112938   -2.243583
     22          6           0        2.499145    0.202355   -2.314142
     23          6           0        1.127173    0.715029   -2.671382
     24          6           0        3.512016    1.281766   -2.035164
     25          8           0        1.637627    4.547159   -0.006202
     26          6           0       -2.698497    1.867739   -0.939195
     27          8           0       -2.039413    2.066220   -1.938047
     28          6           0       -2.178557    0.463441    3.224873
     29          1           0       -3.542379   -0.135462    0.829085
     30          8           0       -1.110635   -2.325758    3.363178
     31          6           0       -1.895878   -3.331238   -1.282567
     32          6           0       -3.208350   -3.328650   -2.087235
     33          6           0       -0.691060   -3.075230   -2.201969
     34          8           0       -4.048451    1.884957   -0.929093
     35          6           0       -4.676860    2.120017   -2.202021
     36          1           0       -0.792877    3.767612   -0.295242
     37          1           0        3.039944    2.638679    1.259998
     38          1           0       -2.792284    2.087607    1.151964
     39          1           0       -0.969067   -0.549338   -0.762048
     40          1           0       -2.613526   -0.699532   -1.324798
     41          1           0       -1.924014   -3.838787    1.359344
     42          1           0       -3.005578   -1.958454    2.808632
     43          1           0        3.269636    0.643819    2.566694
     44          1           0        1.837960   -0.255317    3.074181
     45          1           0        1.800308   -1.527701    0.921480
     46          1           0        4.817285   -2.975945   -0.187438
     47          1           0        3.055261   -2.998004   -0.299873
     48          1           0        4.883733   -1.127507   -1.908245
     49          1           0        4.219629   -2.642993   -2.493282
     50          1           0        5.045550    0.269219    1.680902
     51          1           0        5.891813   -1.254451    1.364673
     52          1           0        5.586652   -0.129219    0.048840
     53          1           0        1.922719   -1.790549   -2.456721
     54          1           0        0.433305   -0.099658   -2.900221
     55          1           0        0.695665    1.302156   -1.852063
     56          1           0        1.165637    1.382751   -3.543974
     57          1           0        4.512232    0.894127   -1.831033
     58          1           0        3.582068    1.974828   -2.885079
     59          1           0        3.196913    1.875665   -1.169006
     60          1           0        2.589306    4.619247    0.204166
     61          1           0       -1.762361    0.018261    4.131896
     62          1           0       -1.806332    1.487033    3.139205
     63          1           0       -3.269568    0.497633    3.317064
     64          1           0       -0.214254   -2.169814    3.008753
     65          1           0       -1.778261   -4.332005   -0.846301
     66          1           0       -3.179100   -4.097930   -2.867342
     67          1           0       -4.067379   -3.530522   -1.438384
     68          1           0       -3.376032   -2.364928   -2.581978
     69          1           0       -0.625350   -3.848022   -2.976164
     70          1           0        0.244298   -3.078742   -1.632301
     71          1           0       -0.773544   -2.106285   -2.707345
     72          1           0       -5.748767    2.094976   -2.007440
     73          1           0       -4.380025    3.093637   -2.599586
     74          1           0       -4.396820    1.339505   -2.914235
 ---------------------------------------------------------------------
 Rotational constants (GHZ):           0.1453528           0.1089627           0.0963299
 Standard basis: 6-311G(d,p) (5D, 7F)
 There are   886 symmetry adapted cartesian basis functions of A   symmetry.
 There are   852 symmetry adapted basis functions of A   symmetry.
   852 basis functions,  1408 primitive gaussians,   886 cartesian basis functions
   127 alpha electrons      127 beta electrons
       nuclear repulsion energy      4013.0655190369 Hartrees.
 NAtoms=   74 NActive=   74 NUniq=   74 SFac= 1.00D+00 NAtFMM=   60 NAOKFM=T Big=T
 Integral buffers will be    131072 words long.
 Raffenetti 1 integral format.
 Two-electron integral symmetry is turned on.
 Nuclear repulsion after empirical dispersion term =     4012.9843388642 Hartrees.
 Using the following non-standard input for PCM:
 radii=bondi
 --- end of non-standard input.
 ------------------------------------------------------------------------------
 Polarizable Continuum Model (PCM)
 =================================
 Model                : PCM.
 Atomic radii         : Bondi.
 Polarization charges : Total charges.
 Charge compensation  : None.
 Solution method      : On-the-fly selection.
 Cavity type          : Scaled VdW (van der Waals Surface) (Alpha=1.100).
 Cavity algorithm     : GePol (No added spheres)
                        Default sphere list used, NSphG=   74.
                        Lebedev-Laikov grids with approx.  5.0 points / Ang**2.
                        Smoothing algorithm: York/Karplus (Gamma=1.0000).
                        Polarization charges: spherical gaussians, with
                                              point-specific exponents (IZeta= 3).
                        Self-potential: point-specific (ISelfS= 7).
                        Self-field    : sphere-specific E.n sum rule (ISelfD= 2).
 Solvent              : Methanol, Eps=  32.613000 Eps(inf)=   1.765709
 ------------------------------------------------------------------------------
 One-electron integrals computed using PRISM.
 NBasis=   852 RedAO= T EigKep=  1.33D-04  NBF=   852
 NBsUse=   852 1.00D-06 EigRej= -1.00D+00 NBFU=   852
 Initial guess from the checkpoint file:  "JSL-82148-1-conf-1.chk"
 B after Tr=     0.000000    0.000000   -0.000000
         Rot=    1.000000   -0.000000   -0.000000    0.000000 Ang=   0.00 deg.
 Requested convergence on RMS density matrix=1.00D-08 within 128 cycles.
 Requested convergence on MAX density matrix=1.00D-06.
 Requested convergence on             energy=1.00D-06.
 No special actions if energy rises.
 Inv3:  Mode=1 IEnd=    63507603.
 Iteration    1 A*A^-1 deviation from unit magnitude is 3.33D-15 for    106.
 Iteration    1 A*A^-1 deviation from orthogonality  is 2.66D-15 for   3491   1270.
 Iteration    1 A^-1*A deviation from unit magnitude is 3.55D-15 for    106.
 Iteration    1 A^-1*A deviation from orthogonality  is 1.90D-14 for   2797   2609.
 Error on total polarization charges =  0.04898
 SCF Done:  E(RwB97XD) =  -1505.24867762     A.U. after   12 cycles
            NFock= 12  Conv=0.79D-08     -V/T= 2.0044
 DoSCS=F DFT=T ScalE2(SS,OS)=  1.000000  1.000000
 ExpMin= 1.03D-01 ExpMax= 8.59D+03 ExpMxC= 1.30D+03 IAcc=3 IRadAn=         5 AccDes= 0.00D+00
 HarFok:  IExCor=  205 AccDes= 0.00D+00 IRadAn=         5 IDoV=-2 UseB2=F ITyADJ=14
 ICtDFT= 12500011 ScaDFX=  1.000000  1.000000  1.000000  1.000000
 GSVD:  LWork=       -1428 too small for GESVD, short by        6290 words or        6290 for optimal perf.
 Range of M.O.s used for correlation:    35   852
 NBasis=   852 NAE=   127 NBE=   127 NFC=    34 NFV=     0
 NROrb=    818 NOA=    93 NOB=    93 NVA=   725 NVB=   725

 **** Warning!!: The largest alpha MO coefficient is  0.10787643D+02

 NEqPCM:  Using non-equilibrium solvation (IEInf=1, Eps=  32.6130, EpsInf=   1.7657)
 Inv3:  Mode=1 IEnd=    63507603.
 Iteration    1 A*A^-1 deviation from unit magnitude is 3.55D-15 for   3404.
 Iteration    1 A*A^-1 deviation from orthogonality  is 2.44D-15 for   4072    765.
 Iteration    1 A^-1*A deviation from unit magnitude is 4.00D-15 for   3404.
 Iteration    1 A^-1*A deviation from orthogonality  is 2.76D-14 for   2439   2399.
 Orbital symmetries:
       Occupied  (A) (A) (A) (A) (A) (A) (A) (A) (A) (A) (A) (A)
                 (A) (A) (A) (A) (A) (A) (A) (A) (A) (A) (A) (A)
                 (A) (A) (A) (A) (A) (A) (A) (A) (A) (A) (A) (A)
                 (A) (A) (A) (A) (A) (A) (A) (A) (A) (A) (A) (A)
                 (A) (A) (A) (A) (A) (A) (A) (A) (A) (A) (A) (A)
                 (A) (A) (A) (A) (A) (A) (A) (A) (A) (A) (A) (A)
                 (A) (A) (A) (A) (A) (A) (A) (A) (A) (A) (A) (A)
                 (A) (A) (A) (A) (A) (A) (A) (A) (A) (A) (A) (A)
                 (A) (A) (A) (A) (A) (A) (A) (A) (A) (A) (A) (A)
                 (A) (A) (A) (A) (A) (A) (A) (A) (A) (A) (A) (A)
                 (A) (A) (A) (A) (A) (A) (A)
       Virtual   (A) (A) (A) (A) (A) (A) (A) (A) (A) (A) (A) (A)
                 (A) (A) (A) (A) (A) (A) (A) (A) (A) (A) (A) (A)
                 (A) (A) (A) (A) (A) (A) (A) (A) (A) (A) (A) (A)
                 (A) (A) (A) (A) (A) (A) (A) (A) (A) (A) (A) (A)
                 (A) (A) (A) (A) (A) (A) (A) (A) (A) (A) (A) (A)
                 (A) (A) (A) (A) (A) (A) (A) (A) (A) (A) (A) (A)
                 (A) (A) (A) (A) (A) (A) (A) (A) (A) (A) (A) (A)
                 (A) (A) (A) (A) (A) (A) (A) (A) (A) (A) (A) (A)
                 (A) (A) (A) (A) (A) (A) (A) (A) (A) (A) (A) (A)
                 (A) (A) (A) (A) (A) (A) (A) (A) (A) (A) (A) (A)
                 (A) (A) (A) (A) (A) (A) (A) (A) (A) (A) (A) (A)
                 (A) (A) (A) (A) (A) (A) (A) (A) (A) (A) (A) (A)
                 (A) (A) (A) (A) (A) (A) (A) (A) (A) (A) (A) (A)
                 (A) (A) (A) (A) (A) (A) (A) (A) (A) (A) (A) (A)
                 (A) (A) (A) (A) (A) (A) (A) (A) (A) (A) (A) (A)
                 (A) (A) (A) (A) (A) (A) (A) (A) (A) (A) (A) (A)
                 (A) (A) (A) (A) (A) (A) (A) (A) (A) (A) (A) (A)
                 (A) (A) (A) (A) (A) (A) (A) (A) (A) (A) (A) (A)
                 (A) (A) (A) (A) (A) (A) (A) (A) (A) (A) (A) (A)
                 (A) (A) (A) (A) (A) (A) (A) (A) (A) (A) (A) (A)
                 (A) (A) (A) (A) (A) (A) (A) (A) (A) (A) (A) (A)
                 (A) (A) (A) (A) (A) (A) (A) (A) (A) (A) (A) (A)
                 (A) (A) (A) (A) (A) (A) (A) (A) (A) (A) (A) (A)
                 (A) (A) (A) (A) (A) (A) (A) (A) (A) (A) (A) (A)
                 (A) (A) (A) (A) (A) (A) (A) (A) (A) (A) (A) (A)
                 (A) (A) (A) (A) (A) (A) (A) (A) (A) (A) (A) (A)
                 (A) (A) (A) (A) (A) (A) (A) (A) (A) (A) (A) (A)
                 (A) (A) (A) (A) (A) (A) (A) (A) (A) (A) (A) (A)
                 (A) (A) (A) (A) (A) (A) (A) (A) (A) (A) (A) (A)
                 (A) (A) (A) (A) (A) (A) (A) (A) (A) (A) (A) (A)
                 (A) (A) (A) (A) (A) (A) (A) (A) (A) (A) (A) (A)
                 (A) (A) (A) (A) (A) (A) (A) (A) (A) (A) (A) (A)
                 (A) (A) (A) (A) (A) (A) (A) (A) (A) (A) (A) (A)
                 (A) (A) (A) (A) (A) (A) (A) (A) (A) (A) (A) (A)
                 (A) (A) (A) (A) (A) (A) (A) (A) (A) (A) (A) (A)
                 (A) (A) (A) (A) (A) (A) (A) (A) (A) (A) (A) (A)
                 (A) (A) (A) (A) (A) (A) (A) (A) (A) (A) (A) (A)
                 (A) (A) (A) (A) (A) (A) (A) (A) (A) (A) (A) (A)
                 (A) (A) (A) (A) (A) (A) (A) (A) (A) (A) (A) (A)
                 (A) (A) (A) (A) (A) (A) (A) (A) (A) (A) (A) (A)
                 (A) (A) (A) (A) (A) (A) (A) (A) (A) (A) (A) (A)
                 (A) (A) (A) (A) (A) (A) (A) (A) (A) (A) (A) (A)
                 (A) (A) (A) (A) (A) (A) (A) (A) (A) (A) (A) (A)
                 (A) (A) (A) (A) (A) (A) (A) (A) (A) (A) (A) (A)
                 (A) (A) (A) (A) (A) (A) (A) (A) (A) (A) (A) (A)
                 (A) (A) (A) (A) (A) (A) (A) (A) (A) (A) (A) (A)
                 (A) (A) (A) (A) (A) (A) (A) (A) (A) (A) (A) (A)
                 (A) (A) (A) (A) (A) (A) (A) (A) (A) (A) (A) (A)
                 (A) (A) (A) (A) (A) (A) (A) (A) (A) (A) (A) (A)
                 (A) (A) (A) (A) (A) (A) (A) (A) (A) (A) (A) (A)
                 (A) (A) (A) (A) (A) (A) (A) (A) (A) (A) (A) (A)
                 (A) (A) (A) (A) (A) (A) (A) (A) (A) (A) (A) (A)
                 (A) (A) (A) (A) (A) (A) (A) (A) (A) (A) (A) (A)
                 (A) (A) (A) (A) (A) (A) (A) (A) (A) (A) (A) (A)
                 (A) (A) (A) (A) (A) (A) (A) (A) (A) (A) (A) (A)
                 (A) (A) (A) (A) (A) (A) (A) (A) (A) (A) (A) (A)
                 (A) (A) (A) (A) (A) (A) (A) (A) (A) (A) (A) (A)
                 (A) (A) (A) (A) (A) (A) (A) (A) (A) (A) (A) (A)
                 (A) (A) (A) (A) (A) (A) (A) (A) (A) (A) (A) (A)
                 (A) (A) (A) (A) (A) (A) (A) (A) (A) (A) (A) (A)
                 (A) (A) (A) (A) (A)
   120 initial guesses have been made.
 Convergence on wavefunction:    0.001000000000000
 Iteration     1 Dimension   120 NMult     0 NNew    120
 CISAX will form   120 AO SS matrices at one time.
 New state      3 was old state     54
 New state      4 was old state      5
 New state      5 was old state      4
 New state      6 was old state      3
 New state      7 was old state      6
 New state      9 was old state     20
 New state     10 was old state     14
 New state     12 was old state      7
 New state     14 was old state     61
 New state     15 was old state      9
 New state     16 was old state     29
 New state     17 was old state     22
 New state     18 was old state     28
 New state     19 was old state     15
 New state     20 was old state     33
 New state     21 was old state     16
 New state     22 was old state     21
 New state     23 was old state     19
 New state     24 was old state     18
 New state     25 was old state     45
 New state     26 was old state     10
 New state     27 was old state     26
 New state     28 was old state     27
 New state     29 was old state     47
 New state     30 was old state     42
 Iteration     2 Dimension   180 NMult   120 NNew     60
 New state      2 was old state      4
 New state      3 was old state      2
 New state      4 was old state      3
 New state      6 was old state     14
 New state      7 was old state      6
 New state      8 was old state      7
 New state      9 was old state      8
 New state     10 was old state     12
 New state     11 was old state     13
 New state     12 was old state     10
 New state     13 was old state      9
 New state     14 was old state     11
 New state     15 was old state     16
 New state     16 was old state     19
 New state     17 was old state     15
 New state     18 was old state     17
 New state     19 was old state     21
 New state     21 was old state     23
 New state     22 was old state     18
 New state     23 was old state     22
 New state     24 was old state     30
 New state     26 was old state     24
 New state     27 was old state     28
 New state     28 was old state     27
 New state     29 was old state     33
 New state     30 was old state     26
 Iteration     3 Dimension   240 NMult   180 NNew     60
 New state     18 was old state     19
 New state     19 was old state     18
 Iteration     4 Dimension   300 NMult   240 NNew     60
 Iteration     5 Dimension   356 NMult   300 NNew     56
 Iteration     6 Dimension   394 NMult   356 NNew     38
 Iteration     7 Dimension   408 NMult   394 NNew     14
 Iteration     8 Dimension   412 NMult   408 NNew      4
 Iteration     9 Dimension   414 NMult   412 NNew      2
 ***********************************************************************
 Excited states from <AA,BB:AA,BB> singles matrix:
 ***********************************************************************
 
 Ground to excited state transition densities written to RWF  633
 Ground to excited state transition electric dipole moments (Au):
       state          X           Y           Z        Dip. S.      Osc.
         1         0.9351     -0.3618      0.2369      1.0614      0.1220
         2         0.6353      0.2889     -0.2005      0.5273      0.0735
         3         0.0179      0.1209      0.0089      0.0150      0.0022
         4         0.0557      0.7147      0.0143      0.5141      0.0777
         5         0.2061     -0.9708     -0.1114      0.9973      0.1518
         6         1.3065      0.9126     -0.3137      2.6381      0.4176
         7        -0.9323     -0.1976      0.2604      0.9760      0.1566
         8        -0.3297     -0.1057      0.7887      0.7419      0.1193
         9         0.4931      0.2493     -0.1109      0.3176      0.0516
        10         0.5278     -0.1384      0.9549      1.2095      0.2009
        11         1.2296     -1.1041      0.3702      2.8680      0.4778
        12        -0.1733      1.1660     -0.2892      1.4733      0.2489
        13         0.4006     -0.6174      0.1429      0.5621      0.0961
        14        -0.2823     -0.0799      0.6844      0.5545      0.0957
        15        -0.3434      0.1982      0.6757      0.6138      0.1068
        16        -0.6317      0.0345      0.0287      0.4011      0.0704
        17         0.1626      0.2617     -0.4919      0.3369      0.0599
        18         0.0636     -0.3954     -0.3558      0.2870      0.0512
        19        -0.1972     -0.2619      0.2912      0.1923      0.0344
        20        -0.4303      0.2541      0.0838      0.2567      0.0462
        21         0.1627     -0.3474      0.2618      0.2157      0.0391
        22         0.2013      0.0158      0.3662      0.1749      0.0320
        23        -0.2238      0.0768     -0.0714      0.0611      0.0112
        24         0.0737      0.3850     -0.0273      0.1544      0.0285
        25         0.0688     -0.1016      0.1675      0.0431      0.0080
        26         0.1813      0.0581      0.0149      0.0365      0.0068
        27         0.1048      0.0526      0.0842      0.0208      0.0039
        28         0.4941     -0.2993     -0.1049      0.3447      0.0649
        29        -0.0311      0.1552     -0.3147      0.1241      0.0235
        30         0.2604      0.1728     -0.3621      0.2288      0.0433
 Ground to excited state transition velocity dipole moments (Au):
       state          X           Y           Z        Dip. S.      Osc.
         1        -0.1655      0.0636     -0.0413      0.0331      0.1280
         2        -0.1314     -0.0613      0.0414      0.0227      0.0725
         3        -0.0035     -0.0321     -0.0006      0.0010      0.0032
         4        -0.0146     -0.1602     -0.0002      0.0259      0.0761
         5        -0.0423      0.2230      0.0263      0.0522      0.1525
         6        -0.3085     -0.2160      0.0761      0.1476      0.4144
         7         0.2186      0.0485     -0.0650      0.0544      0.1505
         8         0.0818      0.0233     -0.1910      0.0437      0.1209
         9        -0.1173     -0.0587      0.0327      0.0183      0.0500
        10        -0.1285      0.0280     -0.2322      0.0712      0.1905
        11        -0.3005      0.2712     -0.0968      0.1732      0.4621
        12         0.0466     -0.2920      0.0651      0.0917      0.2413
        13        -0.0982      0.1535     -0.0407      0.0349      0.0906
        14         0.0724      0.0200     -0.1829      0.0391      0.1007
        15         0.0873     -0.0507     -0.1613      0.0362      0.0925
        16         0.1670     -0.0218     -0.0248      0.0290      0.0733
        17        -0.0421     -0.0733      0.1252      0.0228      0.0571
        18        -0.0208      0.1016      0.0987      0.0205      0.0510
        19         0.0500      0.0708     -0.0722      0.0127      0.0317
        20         0.1119     -0.0723     -0.0215      0.0182      0.0450
        21        -0.0380      0.0904     -0.0753      0.0153      0.0375
        22        -0.0546     -0.0001     -0.0979      0.0126      0.0306
        23         0.0555     -0.0258      0.0267      0.0045      0.0108
        24        -0.0211     -0.1036      0.0161      0.0114      0.0275
        25        -0.0155      0.0282     -0.0472      0.0033      0.0078
        26        -0.0459     -0.0117     -0.0032      0.0023      0.0054
        27        -0.0315     -0.0115     -0.0202      0.0015      0.0036
        28        -0.1376      0.0834      0.0303      0.0268      0.0633
        29         0.0080     -0.0396      0.0960      0.0109      0.0255
        30        -0.0643     -0.0491      0.0979      0.0161      0.0378
 Ground to excited state transition magnetic dipole moments (Au):
       state          X           Y           Z
         1        -0.5195     -0.4563      0.7825
         2        -0.0105     -0.7113      0.2041
         3         0.4110      0.1852     -0.4428
         4         0.8461      0.2410      0.3724
         5        -1.9927     -0.7738     -0.0549
         6         1.1217     -1.0470      0.9566
         7         0.7986      1.6346     -1.0040
         8         1.2456     -0.9040     -0.9033
         9        -2.1877     -0.6673     -0.0782
        10         1.7337     -1.6475      0.5589
        11         0.0554      0.0772      2.3883
        12        -1.5434     -1.0656     -1.2103
        13         0.2357     -1.0805      0.1145
        14        -0.0250      1.1774      0.6739
        15         0.1416      0.7200      0.6353
        16         0.0199      0.7980     -0.1295
        17        -0.2709     -0.1305      0.2624
        18        -0.0584      0.2514      1.0531
        19         0.8246     -0.1126      0.1669
        20        -0.1389      0.2092     -0.5543
        21         0.4904      0.1072     -0.1511
        22         0.0117     -0.2408      0.2628
        23         0.0392      0.3059      0.0710
        24         0.1649     -0.5187     -0.5355
        25        -0.1324     -0.2458     -0.4554
        26        -0.1855     -0.2105      0.1971
        27        -0.2288     -0.0756      0.1360
        28         0.4823     -0.2176     -0.0675
        29         0.1223     -0.0949     -0.2877
        30        -0.4019      0.3073     -0.4026
 Ground to excited state transition velocity quadrupole moments (Au):
       state          XX          YY          ZZ          XY          XZ          YZ
         1        -0.4807      0.4745     -0.1969     -0.3096     -0.2008     -0.1556
         2        -0.5867     -0.7150      0.2283     -0.0686     -0.1459      0.1190
         3         0.0514     -0.0800      0.0482      0.0908     -0.0064     -0.0810
         4         1.1227     -1.1300      0.2984     -0.7642     -0.1144     -0.3160
         5        -1.4484      1.4176     -0.2218      0.7426      0.2551      0.0493
         6        -0.4879     -1.8764      0.7692     -0.6515     -0.1327     -0.2387
         7         0.4652      0.1653      0.1755      0.5595     -0.2641     -0.0134
         8         0.2510      0.2176     -0.3398      0.0898      0.8627      1.1970
         9        -0.4781      0.5922     -0.1295     -0.7552     -0.4105      0.1015
        10        -0.4281      0.1025     -0.3552     -0.0666      0.7731      1.0787
        11        -1.2599      0.7580     -0.2055      0.4175     -0.4530     -0.7689
        12         0.9909     -0.2208     -0.1910     -1.6676      0.2184      0.8582
        13        -1.2093      0.2238      0.0616      0.8142      0.5684     -0.2537
        14         1.4371      0.4525     -0.5088     -0.5544     -0.2479      0.1929
        15         1.9023      0.7657     -0.5165     -1.2391     -0.3614      0.3713
        16         1.2969      0.2002     -0.2462     -0.1972     -0.2235     -0.2352
        17        -1.0198     -0.1347      0.0879      0.3193     -0.4474     -0.3751
        18        -0.6779     -0.1292      0.2625      0.7702     -0.2801     -1.0817
        19         0.1764      0.0196     -0.0901      0.6102      0.5077      0.2677
        20         0.5156      0.5231     -0.1392     -0.3123     -0.1458      0.5654
        21        -0.3045     -0.2292      0.1314      1.0148      0.3239     -0.0202
        22         0.2613      0.1635     -0.1611     -0.4103      0.1222      0.0132
        23         0.2816     -0.1042     -0.2568     -0.3082     -0.0943      0.3606
        24         0.0767      0.1122     -0.3345     -0.3894      0.0751      0.7527
        25         0.2597      0.3407     -0.2565      0.0094      0.1087      0.0213
        26         0.2976     -0.0489     -0.0703     -0.1193      0.1254     -0.1010
        27         0.3621     -0.2996     -0.0278      0.1645      0.1791      0.3295
        28        -1.5090     -0.3763      0.5158      0.5959      0.0186      0.0836
        29        -0.0769      0.4025     -0.1618      0.0575     -0.1868      0.0336
        30         0.0661      0.3396     -0.0044      0.6608     -0.4957     -0.6679
 <0|del|b> * <b|rxdel|0> + <0|del|b> * <b|delr+rdel|0>
 Rotatory Strengths (R) in cgs (10**-40 erg-esu-cm/Gauss)
       state          XX          YY          ZZ    R(velocity)    E-M Angle
         1       -73.3124    136.6668     37.8083     33.7209       82.54
         2        68.0906     -5.0185    117.6323     60.2348       61.38
         3        -9.6483     -1.3157    -12.0927     -7.6856      110.33
         4       -88.6847    -12.4306    -58.0276    -53.0476      109.39
         5      -327.3204     94.8657    -45.3268    -92.5938      100.58
         6       328.6251   -223.2811   -245.4634    -46.7065       93.88
         7       177.7893    401.4236    358.3929    312.5353       48.79
         8       167.5951    571.1138      4.4235    247.7108       47.22
         9       -17.6969    387.0144    481.2302    283.5159       18.62
        10      -258.3228   -718.7885   -154.1054   -377.0722      127.46
        11      -180.9611     33.3550   -494.6304   -214.0788      103.19
        12       261.6627     -2.9932    189.0587    149.2427       76.27
        13      -400.8457     41.6617   -174.5619   -177.9153      158.88
        14         9.1435   -290.2402      3.8631    -92.4112      112.23
        15        57.7649   -349.0878    -51.8192   -114.3807      133.27
        16       -19.0230    -50.4882     40.3629     -9.7161       94.52
        17        65.8029     26.6585     50.3963     47.6193       26.76
        18       309.0148     68.2389    -31.9769    115.0923       32.65
        19      -131.9453    114.3043     73.6501     18.6697       77.19
        20        -9.2563     69.3599   -109.3081    -16.4015      103.21
        21      -110.0278     90.9478     25.4457      2.1219       87.83
        22        18.6761    -86.7199      0.1254    -22.6394      131.21
        23       -21.4582     41.6043    -29.9859     -3.2799      100.42
        24        59.5526    -27.7511     74.5154     35.4390       59.34
        25        14.0401     30.0135     -1.8698     14.0613       56.97
        26         4.6558     15.3711      6.1773      8.7347       50.55
        27        -3.9349     -3.2694     20.6348      4.4768       60.46
        28        -4.5961   -122.7071    -89.4769    -72.2600      172.36
        29       -32.0693    -39.7340     14.7889    -19.0048      132.25
        30       -17.5813    -43.9106     -9.7839    -23.7586      110.41
 1/2[<0|r|b>*<b|rxdel|0> + (<0|rxdel|b>*<b|r|0>)*]
 Rotatory Strengths (R) in cgs (10**-40 erg-esu-cm/Gauss)
       state          XX          YY          ZZ     R(length)
         1       343.5543   -116.7417   -131.0729     31.9132
         2         4.7098    145.3046     28.9363     59.6502
         3        -5.1886    -15.8369      2.7737     -6.0839
         4       -33.3447   -121.8004     -3.7708    -52.9720
         5       290.4574   -531.2092     -4.3260    -81.6926
         6     -1036.2987    675.7059    212.1750    -49.4726
         7       526.5317    228.4057    184.8671    313.2682
         8       290.4222    -67.5953    503.8151    242.2140
         9       762.8852    117.6562     -6.1324    291.4697
        10      -647.0694   -161.2224   -377.3816   -395.2245
        11       -48.1663     60.2587   -625.2405   -204.3827
        12      -189.1742    878.6395   -247.5482    147.3057
        13       -66.7607   -471.7487    -11.5678   -183.3591
        14        -4.9869     66.5244   -326.1287    -88.1971
        15        34.3745   -100.8967   -303.5555   -123.3592
        16         8.9001    -19.4797      2.6289     -2.6502
        17        31.1530     24.1504     91.2778     48.8604
        18         2.6286     70.3109    264.9727    112.6374
        19       114.9793    -20.8623    -34.3649     19.9174
        20       -42.2737    -37.5808     32.8322    -15.6741
        21       -56.4268     26.3251     27.9634     -0.7128
        22        -1.6638      2.6918    -68.0500    -22.3407
        23         6.2057    -16.6095      3.5886     -2.2717
        24        -8.5938    141.2035    -10.3511     40.7528
        25         6.4372    -17.6639     53.9502     14.2412
        26        23.7867      8.6459     -2.0733     10.1198
        27        16.9540      2.8110     -8.0987      3.8888
        28      -168.5259    -46.0688     -5.0078    -73.2008
        29         2.6931     10.4140    -64.0302    -16.9744
        30        74.0241    -37.5424   -103.0878    -22.2020
  1/2[<0|del|b>*<b|r|0> + (<0|r|b>*<b|del|0>)*] (Au)
       state          X           Y           Z        Dip. S.   Osc.(frdel)
         1        -0.1547     -0.0230     -0.0098      0.1875      0.1250
         2        -0.0835     -0.0177     -0.0083      0.1095      0.0730
         3        -0.0001     -0.0039     -0.0000      0.0040      0.0026
         4        -0.0008     -0.1145     -0.0000      0.1153      0.0769
         5        -0.0087     -0.2165     -0.0029      0.2281      0.1521
         6        -0.4030     -0.1971     -0.0239      0.6240      0.4160
         7        -0.2038     -0.0096     -0.0169      0.2303      0.1535
         8        -0.0270     -0.0025     -0.1506      0.1801      0.1200
         9        -0.0578     -0.0146     -0.0036      0.0761      0.0507
        10        -0.0678     -0.0039     -0.2217      0.2934      0.1956
        11        -0.3694     -0.2994     -0.0358      0.7047      0.4698
        12        -0.0081     -0.3405     -0.0188      0.3674      0.2450
        13        -0.0393     -0.0948     -0.0058      0.1399      0.0933
        14        -0.0204     -0.0016     -0.1252      0.1472      0.0981
        15        -0.0300     -0.0100     -0.1090      0.1490      0.0994
        16        -0.1055     -0.0008     -0.0007      0.1069      0.0713
        17        -0.0069     -0.0192     -0.0616      0.0876      0.0584
        18        -0.0013     -0.0402     -0.0351      0.0766      0.0511
        19        -0.0099     -0.0185     -0.0210      0.0494      0.0330
        20        -0.0481     -0.0184     -0.0018      0.0683      0.0455
        21        -0.0062     -0.0314     -0.0197      0.0573      0.0382
        22        -0.0110     -0.0000     -0.0359      0.0469      0.0312
        23        -0.0124     -0.0020     -0.0019      0.0163      0.0109
        24        -0.0016     -0.0399     -0.0004      0.0419      0.0279
        25        -0.0011     -0.0029     -0.0079      0.0118      0.0079
        26        -0.0083     -0.0007     -0.0000      0.0091      0.0060
        27        -0.0033     -0.0006     -0.0017      0.0056      0.0037
        28        -0.0680     -0.0250     -0.0032      0.0961      0.0641
        29        -0.0003     -0.0061     -0.0302      0.0366      0.0244
        30        -0.0168     -0.0085     -0.0354      0.0607      0.0405

 Excitation energies and oscillator strengths:
 
 Excited State   1:      Singlet-A      4.6923 eV  264.23 nm  f=0.1220  <S**2>=0.000
     123 ->130         0.13564
     127 ->128         0.66107
 This state for optimization and/or second-order correction.
 Total Energy, E(TD-HF/TD-DFT) =  -1505.07623781    
 Copying the excited state density for this state as the 1-particle RhoCI density.
 
 Excited State   2:      Singlet-A      5.6930 eV  217.78 nm  f=0.0735  <S**2>=0.000
     123 ->128        -0.27329
     124 ->128        -0.11692
     125 ->128         0.24044
     127 ->130         0.49620
     127 ->131        -0.22478
     127 ->132         0.15516
 
 Excited State   3:      Singlet-A      5.9219 eV  209.37 nm  f=0.0022  <S**2>=0.000
     116 ->129         0.14515
     120 ->129         0.22184
     121 ->128         0.10125
     121 ->129         0.48930
     121 ->131         0.14616
     122 ->129        -0.16346
     127 ->129         0.26096
 
 Excited State   4:      Singlet-A      6.1669 eV  201.05 nm  f=0.0777  <S**2>=0.000
     121 ->129        -0.19214
     123 ->128         0.10148
     125 ->128        -0.32858
     127 ->129         0.52676
     127 ->130         0.11507
 
 Excited State   5:      Singlet-A      6.2124 eV  199.58 nm  f=0.1518  <S**2>=0.000
     121 ->129        -0.12246
     125 ->128         0.45366
     125 ->130         0.14567
     127 ->129         0.33075
     127 ->130        -0.20048
     127 ->131         0.11431
     127 ->132        -0.15171
 
 Excited State   6:      Singlet-A      6.4612 eV  191.89 nm  f=0.4176  <S**2>=0.000
     123 ->128         0.45973
     124 ->128         0.28804
     125 ->128         0.14334
     126 ->128         0.27093
     127 ->130         0.22679
 
 Excited State   7:      Singlet-A      6.5503 eV  189.28 nm  f=0.1566  <S**2>=0.000
     123 ->128        -0.14883
     123 ->130         0.15450
     125 ->128         0.14447
     125 ->130        -0.16118
     126 ->128         0.44553
     126 ->130         0.15087
     126 ->132        -0.15079
     127 ->128        -0.11644
     127 ->130        -0.17051
     127 ->132         0.20373
 
 Excited State   8:      Singlet-A      6.5618 eV  188.95 nm  f=0.1193  <S**2>=0.000
     123 ->131        -0.11788
     124 ->129        -0.11416
     124 ->130         0.19657
     124 ->131         0.19025
     127 ->130         0.24748
     127 ->131         0.48097
     127 ->132        -0.14760
 
 Excited State   9:      Singlet-A      6.6326 eV  186.93 nm  f=0.0516  <S**2>=0.000
     123 ->128        -0.15290
     123 ->130        -0.10283
     125 ->128        -0.19883
     125 ->130         0.18357
     125 ->132        -0.11673
     126 ->128         0.41365
     126 ->132         0.13342
     126 ->133        -0.12977
     127 ->132        -0.27905
 
 Excited State  10:      Singlet-A      6.7802 eV  182.86 nm  f=0.2009  <S**2>=0.000
     122 ->131         0.14460
     123 ->130        -0.16617
     123 ->131        -0.10947
     124 ->128        -0.16597
     124 ->129        -0.26013
     124 ->130         0.22956
     124 ->131         0.35970
     125 ->131        -0.11420
     127 ->130        -0.12495
     127 ->131        -0.19374
 
 Excited State  11:      Singlet-A      6.8000 eV  182.33 nm  f=0.4778  <S**2>=0.000
     123 ->128        -0.10972
     123 ->130        -0.26556
     123 ->131         0.13173
     124 ->130        -0.16100
     125 ->130         0.24310
     125 ->131        -0.10830
     126 ->132        -0.25678
     127 ->128         0.10111
     127 ->131         0.24674
     127 ->132         0.26781
 
 Excited State  12:      Singlet-A      6.8945 eV  179.83 nm  f=0.2489  <S**2>=0.000
     126 ->130        -0.24081
     126 ->132         0.42638
     126 ->133        -0.10918
     127 ->132         0.30129
     127 ->133         0.20148
     127 ->135        -0.15907
     127 ->139         0.10029
 
 Excited State  13:      Singlet-A      6.9810 eV  177.60 nm  f=0.0961  <S**2>=0.000
     120 ->129         0.13776
     123 ->129         0.43226
     124 ->129         0.26045
     124 ->131         0.10387
[...]
 Alpha  occ. eigenvalues --   -0.40087  -0.39920  -0.39409  -0.39224  -0.38173
 Alpha  occ. eigenvalues --   -0.36782  -0.35890  -0.32889  -0.32034  -0.31080
 Alpha  occ. eigenvalues --   -0.30818  -0.28009
 Alpha virt. eigenvalues --    0.04720   0.06959   0.07614   0.08255   0.09069
 Alpha virt. eigenvalues --    0.09792   0.10837   0.11908   0.12498   0.12957
 Alpha virt. eigenvalues --    0.13811   0.13886   0.14362   0.14825   0.15518
 Alpha virt. eigenvalues --    0.15708   0.16053   0.16984   0.17430   0.17582
 Alpha virt. eigenvalues --    0.17829   0.18035   0.18327   0.18671   0.19021
 Alpha virt. eigenvalues --    0.19378   0.19558   0.19867   0.20266   0.20703
 Alpha virt. eigenvalues --    0.20977   0.21282   0.21853   0.22133   0.22439
 Alpha virt. eigenvalues --    0.22769   0.23062   0.23540   0.23624   0.24160
 Alpha virt. eigenvalues --    0.24445   0.24978   0.25099   0.25798   0.25908
 Alpha virt. eigenvalues --    0.26142   0.26539   0.26811   0.27297   0.27646
 Alpha virt. eigenvalues --    0.28129   0.28585   0.28683   0.28872   0.29544
 Alpha virt. eigenvalues --    0.29739   0.30538   0.30816   0.30996   0.31192
 Alpha virt. eigenvalues --    0.31652   0.31969   0.32559   0.33491   0.33849
 Alpha virt. eigenvalues --    0.34307   0.34870   0.34941   0.35730   0.35929
 Alpha virt. eigenvalues --    0.37079   0.37213   0.37966   0.38975   0.39112
 Alpha virt. eigenvalues --    0.39384   0.39768   0.40229   0.40365   0.40868
 Alpha virt. eigenvalues --    0.41144   0.41530   0.41988   0.42099   0.42989
 Alpha virt. eigenvalues --    0.43194   0.43635   0.44559   0.44655   0.44981
 Alpha virt. eigenvalues --    0.45343   0.45520   0.45674   0.45909   0.46672
 Alpha virt. eigenvalues --    0.47250   0.47950   0.48064   0.48987   0.49071
 Alpha virt. eigenvalues --    0.49556   0.50071   0.50393   0.51101   0.51490
 Alpha virt. eigenvalues --    0.51805   0.52328   0.52866   0.53405   0.53567
 Alpha virt. eigenvalues --    0.54123   0.54288   0.55027   0.55392   0.55613
 Alpha virt. eigenvalues --    0.56376   0.56892   0.57321   0.57578   0.57806
 Alpha virt. eigenvalues --    0.58580   0.58817   0.59303   0.59610   0.59679
 Alpha virt. eigenvalues --    0.60721   0.61059   0.61201   0.61727   0.62072
 Alpha virt. eigenvalues --    0.62200   0.62653   0.62960   0.63198   0.63370
 Alpha virt. eigenvalues --    0.63686   0.64292   0.64560   0.64899   0.65176
 Alpha virt. eigenvalues --    0.65529   0.65652   0.65947   0.66190   0.66747
 Alpha virt. eigenvalues --    0.66957   0.67137   0.67244   0.67727   0.68110
 Alpha virt. eigenvalues --    0.68254   0.68461   0.68715   0.68990   0.69300
 Alpha virt. eigenvalues --    0.69343   0.69631   0.69683   0.70396   0.70629
 Alpha virt. eigenvalues --    0.70937   0.71332   0.71419   0.71877   0.72046
 Alpha virt. eigenvalues --    0.72151   0.72553   0.72768   0.72954   0.73694
 Alpha virt. eigenvalues --    0.73726   0.73905   0.74084   0.74655   0.75063
 Alpha virt. eigenvalues --    0.75312   0.75717   0.75913   0.76590   0.76766
 Alpha virt. eigenvalues --    0.77215   0.77761   0.77939   0.78227   0.78714
 Alpha virt. eigenvalues --    0.79215   0.79604   0.80166   0.80981   0.81420
 Alpha virt. eigenvalues --    0.81833   0.82531   0.83310   0.83475   0.83890
 Alpha virt. eigenvalues --    0.84904   0.85463   0.86153   0.86520   0.86638
 Alpha virt. eigenvalues --    0.87649   0.88072   0.89196   0.89841   0.90602
 Alpha virt. eigenvalues --    0.91368   0.92231   0.92955   0.93913   0.94450
 Alpha virt. eigenvalues --    0.94796   0.95203   0.95987   0.96249   0.96751
 Alpha virt. eigenvalues --    0.98031   0.98461   0.98889   0.99331   0.99761
 Alpha virt. eigenvalues --    1.01035   1.01889   1.02551   1.03641   1.04524
 Alpha virt. eigenvalues --    1.05033   1.05195   1.06122   1.06974   1.07483
 Alpha virt. eigenvalues --    1.07907   1.08384   1.08830   1.09447   1.10174
 Alpha virt. eigenvalues --    1.10542   1.10713   1.12061   1.12488   1.13206
 Alpha virt. eigenvalues --    1.14004   1.14299   1.14816   1.15322   1.16098
 Alpha virt. eigenvalues --    1.16816   1.17264   1.17730   1.18322   1.19180
 Alpha virt. eigenvalues --    1.20109   1.21229   1.21439   1.21727   1.22355
 Alpha virt. eigenvalues --    1.23354   1.24103   1.25686   1.26188   1.27034
 Alpha virt. eigenvalues --    1.27897   1.29037   1.29927   1.30190   1.31373
 Alpha virt. eigenvalues --    1.31992   1.33498   1.33846   1.35282   1.35958
 Alpha virt. eigenvalues --    1.36108   1.38511   1.39031   1.39586   1.39782
 Alpha virt. eigenvalues --    1.41413   1.41604   1.44184   1.44845   1.45032
 Alpha virt. eigenvalues --    1.45568   1.45868   1.46816   1.47214   1.47926
 Alpha virt. eigenvalues --    1.48223   1.48440   1.49124   1.49313   1.49829
 Alpha virt. eigenvalues --    1.50883   1.51203   1.51698   1.52384   1.52947
 Alpha virt. eigenvalues --    1.53064   1.53856   1.54128   1.54537   1.55014
 Alpha virt. eigenvalues --    1.55282   1.55510   1.56064   1.56276   1.56480
 Alpha virt. eigenvalues --    1.56725   1.57118   1.57544   1.57829   1.58070
 Alpha virt. eigenvalues --    1.58402   1.59283   1.59471   1.59962   1.60350
 Alpha virt. eigenvalues --    1.60791   1.61139   1.61347   1.61576   1.62348
 Alpha virt. eigenvalues --    1.62611   1.63038   1.63536   1.64312   1.64453
 Alpha virt. eigenvalues --    1.64724   1.65195   1.65513   1.65801   1.66514
 Alpha virt. eigenvalues --    1.66845   1.67309   1.67621   1.68059   1.68162
 Alpha virt. eigenvalues --    1.68365   1.69085   1.69826   1.70071   1.70183
 Alpha virt. eigenvalues --    1.70796   1.71303   1.71545   1.71874   1.72510
 Alpha virt. eigenvalues --    1.72920   1.73446   1.74034   1.74193   1.74315
 Alpha virt. eigenvalues --    1.75077   1.75995   1.76596   1.76926   1.77261
 Alpha virt. eigenvalues --    1.77546   1.78000   1.78193   1.78623   1.78988
 Alpha virt. eigenvalues --    1.79332   1.79802   1.80292   1.80842   1.81126
 Alpha virt. eigenvalues --    1.81728   1.82039   1.82692   1.83307   1.83827
 Alpha virt. eigenvalues --    1.84011   1.84325   1.84774   1.85589   1.85724
 Alpha virt. eigenvalues --    1.86458   1.86951   1.87152   1.87295   1.87897
 Alpha virt. eigenvalues --    1.88049   1.88895   1.89286   1.89614   1.90381
 Alpha virt. eigenvalues --    1.91171   1.92315   1.92592   1.93998   1.94164
 Alpha virt. eigenvalues --    1.94476   1.94817   1.95337   1.95729   1.96050
 Alpha virt. eigenvalues --    1.97007   1.97352   1.98509   1.98987   1.99732
 Alpha virt. eigenvalues --    2.00796   2.01597   2.01834   2.02492   2.03162
 Alpha virt. eigenvalues --    2.03549   2.04517   2.04970   2.05390   2.06157
 Alpha virt. eigenvalues --    2.06360   2.07264   2.07872   2.08456   2.08881
 Alpha virt. eigenvalues --    2.09447   2.10428   2.11276   2.11478   2.12263
 Alpha virt. eigenvalues --    2.12604   2.13242   2.13610   2.14397   2.14633
 Alpha virt. eigenvalues --    2.15390   2.15872   2.16431   2.16690   2.17622
 Alpha virt. eigenvalues --    2.17815   2.18957   2.20112   2.20342   2.20802
 Alpha virt. eigenvalues --    2.21360   2.21534   2.22031   2.23010   2.23479
 Alpha virt. eigenvalues --    2.24321   2.24948   2.25431   2.26583   2.28033
 Alpha virt. eigenvalues --    2.28647   2.29226   2.29696   2.30400   2.31493
 Alpha virt. eigenvalues --    2.32033   2.33960   2.34464   2.35319   2.35515
 Alpha virt. eigenvalues --    2.36238   2.36788   2.37855   2.37998   2.38887
 Alpha virt. eigenvalues --    2.39349   2.40433   2.41447   2.41763   2.42286
 Alpha virt. eigenvalues --    2.43250   2.43610   2.43867   2.44964   2.45663
 Alpha virt. eigenvalues --    2.45972   2.46203   2.47209   2.47789   2.48950
 Alpha virt. eigenvalues --    2.49075   2.49213   2.50062   2.51101   2.52019
 Alpha virt. eigenvalues --    2.52328   2.52887   2.53555   2.54423   2.54538
 Alpha virt. eigenvalues --    2.55114   2.55667   2.56047   2.56770   2.57177
 Alpha virt. eigenvalues --    2.57826   2.58274   2.58771   2.59628   2.59660
 Alpha virt. eigenvalues --    2.60045   2.60410   2.61280   2.61460   2.61553
 Alpha virt. eigenvalues --    2.62298   2.62667   2.63162   2.63370   2.63810
 Alpha virt. eigenvalues --    2.64347   2.64844   2.64963   2.65426   2.66360
 Alpha virt. eigenvalues --    2.66936   2.67257   2.67687   2.68801   2.69845
 Alpha virt. eigenvalues --    2.70334   2.70820   2.71138   2.71854   2.72739
 Alpha virt. eigenvalues --    2.73912   2.74388   2.74790   2.75437   2.75757
 Alpha virt. eigenvalues --    2.76069   2.76457   2.76919   2.77474   2.78149
 Alpha virt. eigenvalues --    2.78322   2.78472   2.79239   2.80134   2.80490
 Alpha virt. eigenvalues --    2.82381   2.83136   2.83535   2.84099   2.84810
 Alpha virt. eigenvalues --    2.86584   2.86982   2.87050   2.87790   2.88068
 Alpha virt. eigenvalues --    2.89146   2.90167   2.90676   2.91376   2.93756
 Alpha virt. eigenvalues --    2.93848   2.94576   2.94976   2.95929   2.96720
 Alpha virt. eigenvalues --    2.97295   2.97548   2.97870   2.98726   2.99303
 Alpha virt. eigenvalues --    3.00233   3.00664   3.01433   3.02271   3.02440
 Alpha virt. eigenvalues --    3.04038   3.05100   3.06009   3.06574   3.07599
 Alpha virt. eigenvalues --    3.08565   3.08695   3.09439   3.09728   3.10646
 Alpha virt. eigenvalues --    3.12101   3.12706   3.13273   3.14453   3.15672
 Alpha virt. eigenvalues --    3.15876   3.17140   3.18066   3.18533   3.20159
 Alpha virt. eigenvalues --    3.20366   3.20868   3.22010   3.22415   3.23477
 Alpha virt. eigenvalues --    3.24314   3.24596   3.25400   3.25523   3.26887
 Alpha virt. eigenvalues --    3.27505   3.28941   3.30372   3.30990   3.31293
 Alpha virt. eigenvalues --    3.32682   3.33096   3.34332   3.35530   3.38560
 Alpha virt. eigenvalues --    3.39127   3.40297   3.42826   3.43559   3.45235
 Alpha virt. eigenvalues --    3.45374   3.46430   3.48436   3.48918   3.52810
 Alpha virt. eigenvalues --    3.54067   3.56868   3.57692   3.58467   3.65798
 Alpha virt. eigenvalues --    3.65945   3.70729   3.72856   3.74219   3.75032
 Alpha virt. eigenvalues --    3.77706   3.78558   3.80038   3.83038   3.85875
 Alpha virt. eigenvalues --    3.87022   3.87644   3.87823   3.87985   3.89257
 Alpha virt. eigenvalues --    3.89416   3.90505   3.91799   3.92148   3.92731
 Alpha virt. eigenvalues --    3.92893   3.93379   3.94093   3.94266   3.95137
 Alpha virt. eigenvalues --    3.95524   3.95981   3.98070   3.98613   4.03811
 Alpha virt. eigenvalues --    4.04343   4.12555   4.13304   4.15225   4.16204
 Alpha virt. eigenvalues --    4.16293   4.17935   4.19407   4.20442   4.22328
 Alpha virt. eigenvalues --    4.25663   4.28903   4.29804   4.34568   4.36584
 Alpha virt. eigenvalues --    4.38663   4.39392   4.39921   4.40482   4.46619
 Alpha virt. eigenvalues --    4.47457   4.53641   4.54527   4.55528   4.61338
 Alpha virt. eigenvalues --    4.94080   4.95585   5.04780   5.05983   5.08104
 Alpha virt. eigenvalues --    5.21485   5.23596   5.33771   5.38258   5.44121
 Alpha virt. eigenvalues --    5.49385   5.71521   5.72286   5.78911   5.88368
 Alpha virt. eigenvalues --    5.92182  23.61358  23.77216  23.77590  23.80408
 Alpha virt. eigenvalues --   23.88040  23.91242  23.95162  23.97529  23.98754
 Alpha virt. eigenvalues --   23.99599  24.00076  24.01195  24.03377  24.03755
 Alpha virt. eigenvalues --   24.04919  24.06960  24.07091  24.08691  24.09123
 Alpha virt. eigenvalues --   24.09659  24.10059  24.10317  24.10983  24.16682
 Alpha virt. eigenvalues --   24.22737  24.28763  24.39058  24.39218  24.41786
 Alpha virt. eigenvalues --   50.02280  50.05403  50.05820  50.15293  50.15497
          Condensed to atoms (all electrons):
 Mulliken charges:
               1
     1  C    0.182218
     2  C   -0.119626
     3  C   -0.041582
     4  C    0.230909
     5  C   -0.099729
     6  C   -0.172885
     7  C   -0.196970
     8  C   -0.226558
     9  C   -0.062434
    10  O   -0.426902
    11  C   -0.156251
    12  C   -0.066982
    13  C   -0.126962
    14  C    0.093549
    15  C   -0.224478
    16  C   -0.132644
    17  C   -0.127292
    18  C   -0.235518
    19  C   -0.241390
    20  C   -0.296306
    21  C   -0.160778
    22  C   -0.144272
    23  C   -0.319409
    24  C   -0.307917
    25  O   -0.434491
    26  C    0.430377
    27  O   -0.398926
    28  C   -0.255674
    29  H    0.174835
    30  O   -0.452175
    31  C   -0.214376
    32  C   -0.311454
    33  C   -0.337593
    34  O   -0.338861
    35  C   -0.160188
    36  H    0.130040
    37  H    0.142543
    38  H    0.209309
    39  H    0.171896
    40  H    0.157509
    41  H    0.117959
    42  H    0.158383
    43  H    0.145522
    44  H    0.156844
    45  H    0.123418
    46  H    0.132534
    47  H    0.137275
    48  H    0.131251
    49  H    0.136094
    50  H    0.124449
    51  H    0.135405
    52  H    0.131182
    53  H    0.123570
    54  H    0.124225
    55  H    0.136431
    56  H    0.127557
    57  H    0.122044
    58  H    0.130958
    59  H    0.136598
    60  H    0.304354
    61  H    0.132620
    62  H    0.139603
    63  H    0.141942
    64  H    0.276869
    65  H    0.135845
    66  H    0.128423
    67  H    0.123029
    68  H    0.122321
    69  H    0.129128
    70  H    0.132549
    71  H    0.129926
    72  H    0.150254
    73  H    0.144132
    74  H    0.144749
 Sum of Mulliken charges =  -0.00000
 Mulliken charges with hydrogens summed into heavy atoms:
               1
     1  C    0.182218
     2  C    0.010414
     3  C   -0.041582
     4  C    0.230909
     5  C   -0.099729
     6  C   -0.030343
     7  C    0.012338
     8  C   -0.051723
     9  C   -0.062434
    10  O   -0.426902
    11  C    0.173154
    12  C   -0.066982
    13  C   -0.009003
    14  C    0.251932
    15  C    0.077888
    16  C   -0.009225
    17  C   -0.127292
    18  C    0.034291
    19  C    0.025955
    20  C    0.094730
    21  C   -0.037209
    22  C   -0.144272
    23  C    0.068804
    24  C    0.081684
    25  O   -0.130137
    26  C    0.430377
    27  O   -0.398926
    28  C    0.158490
    30  O   -0.175305
    31  C   -0.078531
    32  C    0.062319
    33  C    0.054010
    34  O   -0.338861
    35  C    0.278946
 Electronic spatial extent (au):  <R**2>=          13841.4957
 Charge=              0.0000 electrons
 Dipole moment (field-independent basis, Debye):
    X=             -1.2775    Y=              0.6970    Z=             -0.4083  Tot=              1.5114
 Quadrupole moment (field-independent basis, Debye-Ang):
   XX=           -165.8970   YY=           -205.7977   ZZ=           -216.5584
   XY=              2.4022   XZ=             10.6647   YZ=             12.3311
 Traceless Quadrupole moment (field-independent basis, Debye-Ang):
   XX=             30.1874   YY=             -9.7133   ZZ=            -20.4741
   XY=              2.4022   XZ=             10.6647   YZ=             12.3311
 Octapole moment (field-independent basis, Debye-Ang**2):
  XXX=            -48.1606  YYY=              1.4922  ZZZ=            -24.2499  XYY=             15.9923
  XXY=             81.6772  XXZ=            -15.7418  XZZ=            -32.2993  YZZ=             32.1871
  YYZ=            -21.8303  XYZ=             10.5377
 Hexadecapole moment (field-independent basis, Debye-Ang**3):
 XXXX=          -8059.0815 YYYY=          -5572.8170 ZZZZ=          -4330.8211 XXXY=            -92.4620
 XXXZ=            257.0894 YYYX=             84.4987 YYYZ=             56.5677 ZZZX=            158.4203
 ZZZY=             49.8373 XXYY=          -2115.8938 XXZZ=          -2042.3368 YYZZ=          -1678.4411
 XXYZ=            -77.2156 YYXZ=             92.8696 ZZXY=            -52.1312
 N-N= 4.012984338864D+03 E-N=-1.153445973438D+04  KE= 1.498586569323D+03
 1\1\GINC-LOCALHOST\SP\RwB97XD TD-FC\6-311G(d,p)\C29H40O5\ADMIN\06-Jan-
 2021\0\\# td=(nstates=30,root=1) wb97xd/6-311g(d,p) guess=read geom=ch
 eck integral(ultrafinegrid) scrf=(iefpcm,read,solvent=methanol)\\Candi
 date Structure: JSL-82148-1, Conformer: 1, energy calculation with met
 hanol solvation\\0,1\C,0,0.3829060142,-1.3392402636,-4.2665257386\C,0,
 0.6391574865,0.0293631805,-4.233062505\C,0,1.5935714681,0.5551990391,-
 3.3560762101\C,0,2.3092114273,-0.3248406514,-2.5308240884\C,0,2.052280
 8782,-1.7044525471,-2.5423816331\C,0,1.0865989045,-2.199036524,-3.4162
 891675\C,0,1.8940747751,2.0404874513,-3.3228561208\C,0,2.7347885978,2.
 4079179724,-2.0701483912\C,0,3.8776465127,1.3920319624,-1.9423990819\O
 ,0,3.2884792608,0.1013140211,-1.6601951705\C,0,1.8718622032,2.42696317
 42,-0.796770576\C,0,2.6781013573,2.4811989678,0.4778035378\C,0,3.97078
 95345,2.1402348265,0.4887971591\C,0,4.7577070308,1.7001894215,-0.71326
 39681\C,0,2.7803741635,-2.6176227641,-1.5767364736\C,0,2.2186197424,-2
 .46186854,-0.1834100295\C,0,1.5191661747,-3.3542648916,0.5306898932\C,
 0,0.9465855714,-2.9636126339,1.8752393909\C,0,-0.5750202649,-2.6513718
 209,1.819121922\C,0,1.1997700054,-4.7575987755,0.0815702493\C,0,-0.867
 6400841,-1.4092648337,1.0262184839\C,0,-1.3319192969,-1.3164193335,-0.
 2282202192\C,0,-1.4815003847,0.0220929927,-0.9055476352\C,0,-1.7235586
 703,-2.4924634746,-1.0840269857\O,0,-0.571952465,-1.7868966447,-5.1422
 030143\C,0,0.6527630802,2.9208605276,-3.3564717738\O,0,-0.4852546495,2
 .5945441029,-3.0920407723\C,0,4.7602660682,1.2832754312,-3.1873767459\
 H,0,3.1687051668,3.402494842,-2.2207639485\O,0,5.5965983837,0.58593785
 79,-0.4028688594\C,0,1.9767525843,2.9286410102,1.7463170199\C,0,1.5899
 754678,4.4176857502,1.6894721292\C,0,0.7493974185,2.0570184212,2.05664
 03132\O,0,1.0031272975,4.183967007,-3.6798613458\C,0,-0.0629934253,5.1
 500821757,-3.6573920619\H,0,0.0693380423,0.6867826689,-4.8809695839\H,
 0,0.8809973412,-3.2679939485,-3.4371104496\H,0,2.4795582399,2.31582240
 98,-4.2090165916\H,0,1.222154805,1.542858308,-0.7793654779\H,0,1.19239
 7916,3.2860379833,-0.8420673341\H,0,4.539255589,2.1779437869,1.4174994
 229\H,0,5.4555931187,2.4969075524,-1.00416454\H,0,2.7026616458,-3.6492
 78869,-1.9285218929\H,0,3.8455083859,-2.3526488591,-1.5702792843\H,0,2
 .3695528785,-1.4723849418,0.2466382331\H,0,1.1084033205,-3.7725335763,
 2.6020732091\H,0,1.4685060832,-2.0782943639,2.2589478229\H,0,-1.110047
 0786,-3.519333214,1.4202603938\H,0,-0.9290984934,-2.5188531104,2.85074
 86673\H,0,1.5816729852,-4.9890631408,-0.9150214906\H,0,1.618591232,-5.
 4923259354,0.7829467314\H,0,0.1157856605,-4.9280453286,0.0661118042\H,
 0,-0.6067568641,-0.4792145445,1.5317481825\H,0,-1.2205148722,0.8491945
 639,-0.238221268\H,0,-0.8414164981,0.0930835061,-1.7929337281\H,0,-2.5
 122907082,0.1798490044,-1.2538762811\H,0,-1.6602337,-3.4486220181,-0.5
 604652795\H,0,-2.7510500448,-2.3747877434,-1.4555248772\H,0,-1.0737046
 197,-2.5466107954,-1.9654988094\H,0,-0.6531715355,-2.7571465318,-5.057
 5621514\H,0,5.6262943818,0.6594030548,-2.9531275339\H,0,4.225322658,0.
 8322797644,-4.0264654013\H,0,5.1118102904,2.2748097715,-3.4927470492\H
 ,0,4.9920599208,-0.1631181204,-0.2389128744\H,0,2.6928439891,2.8049061
 761,2.5694810534\H,0,1.1531035659,4.7350642782,2.6432164376\H,0,2.4659
 102909,5.0437016783,1.4881424988\H,0,0.8472871561,4.6117272945,0.90690
 5696\H,0,0.3097026407,2.3386961318,3.0200873439\H,0,1.0222200219,0.997
 2394463,2.0998367858\H,0,-0.0266229399,2.1737316862,1.2916349764\H,0,0
 .3966631944,6.0985125221,-3.934283916\H,0,-0.8413273311,4.8754694444,-
 4.3735546624\H,0,-0.4993730031,5.2116075726,-2.6570633642\\Version=ES6
 4L-G16RevA.03\State=1-A\HF=-1505.2486776\RMSD=7.922e-09\PG=C01 [X(C29H
 40O5)]\\@


 We're simply so accustomed to the marvels of everyday thought
 that we never wonder about it.
 -- Marvin Minsky in "Why people think computers are smart"
 Job cpu time:       4 days  7 hours  9 minutes 23.9 seconds.
 Elapsed time:       0 days 12 hours 58 minutes 32.6 seconds.
 File lengths (MBytes):  RWF=   9485 Int=      0 D2E=      0 Chk=    739 Scr=      1
 Normal termination of Gaussian 16 at Wed Jan  6 00:22:29 2021.
